[
    {
      "symbol": "H",
      "name": "Hydrogen",
      "atomicNumber": 1,
      "atomicMass": 1.01,
      "atomicRadius": 53, 
      "usage": "Used in ammonia production, petroleum refining, and in fuel cells.",
      "category": "Non-metal",
      "density": 0.09,
      "meltingPoint": -259.16,
      "boilingPoint": -252.87,
      "electronegativity": 2.20,
      "discoveredBy": "Henry Cavendish",
      "yearDiscovered": 1766
    },
    {
      "symbol": "He",
      "name": "Helium",
      "atomicNumber": 2,
      "atomicMass": 4.00,
      "atomicRadius": 31,
      "usage": "Used in cryogenics, as a cooling medium in nuclear reactors, and in helium-neon lasers.",
      "category": "Noble Gas",
      "density": 0.18,
      "meltingPoint": -272.20,
      "boilingPoint": -268.93,
      "electronegativity": null,
      "discoveredBy": "Pierre Janssen",
      "yearDiscovered": 1868
    },
    {
      "symbol": "Li",
      "name": "Lithium",
      "atomicNumber": 3,
      "atomicMass": 6.94,
      "atomicRadius": 167,
      "usage": "Used in batteries, ceramics, lubricants, and in the treatment of bipolar disorder.",
      "category": "Alkali Metal",
      "density": 0.53,
      "meltingPoint": 180.54,
      "boilingPoint": 1342,
      "electronegativity": 0.98,
      "discoveredBy": "Johan August Arfwedson",
      "yearDiscovered": 1817
    },
    {
      "symbol": "Be",
      "name": "Beryllium",
      "atomicNumber": 4,
      "atomicMass": 9.01,
      "atomicRadius": 112,
      "usage": "Used in aerospace components, X-ray windows, and in nuclear reactors.",
      "category": "Alkaline Earth Metal",
      "density": 1.85,
      "meltingPoint": 1287,
      "boilingPoint": 2471,
      "electronegativity": 1.57,
      "discoveredBy": "Louis-Nicolas Vauquelin",
      "yearDiscovered": 1797
    },
    {
      "symbol": "B",
      "name": "Boron",
      "atomicNumber": 5,
      "atomicMass": 10.81,
      "atomicRadius": 87,
      "usage": "Used in alloys, semiconductors, and in the production of borosilicate glass.",
      "category": "Metalloid",
      "density": 2.34,
      "meltingPoint": 2075,
      "boilingPoint": 4000,
      "electronegativity": 2.04,
      "discoveredBy": "Joseph Louis Gay-Lussac",
      "yearDiscovered": 1808
    },
    {
      "symbol": "C",
      "name": "Carbon",
      "atomicNumber": 6,
      "atomicMass": 12.01,
      "atomicRadius": 67,
      "usage": "Used in various forms such as graphite, diamond, and in organic compounds.",
      "category": "Non-metal",
      "density": 2.26,
      "meltingPoint": 3915,
      "boilingPoint": 3915,
      "electronegativity": 2.55,
      "discoveredBy": "Ancient Egypt",
      "yearDiscovered": "3720 BC"
    },
    {
      "symbol": "N",
      "name": "Nitrogen",
      "atomicNumber": 7,
      "atomicMass": 14.01,
      "atomicRadius": 56,
      "usage": "Used in fertilizers, explosives, and as a coolant in liquid form.",
      "category": "Non-metal",
      "density": 0.81,
      "meltingPoint": -210.01,
      "boilingPoint": -195.79,
      "electronegativity": 3.04,
      "discoveredBy": "Daniel Rutherford",
      "yearDiscovered": 1772
    },
    {
      "symbol": "O",
      "name": "Oxygen",
      "atomicNumber": 8,
      "atomicMass": 16.00,
      "atomicRadius": 48,
      "usage": "Used in respiration, combustion, and in the production of steel.",
      "category": "Non-metal",
      "density": 1.43,
      "meltingPoint": -218.79,
      "boilingPoint": -182.96,
      "electronegativity": 3.44,
      "discoveredBy": "Carl Wilhelm Scheele",
      "yearDiscovered": 1774
    },
    {
      "symbol": "F",
      "name": "Fluorine",
      "atomicNumber": 9,
      "atomicMass": 19.00,
      "atomicRadius": 42,
      "usage": "Used in toothpaste, water fluoridation, and in the production of uranium.",
      "category": "Halogen",
      "density": 1.70,
      "meltingPoint": -219.62,
      "boilingPoint": -188.12,
      "electronegativity": 3.98,
      "discoveredBy": "André-Marie Ampère",
      "yearDiscovered": 1810
    },
    {
      "symbol": "Ne",
      "name": "Neon",
      "atomicNumber": 10,
      "atomicMass": 20.18,
      "atomicRadius": 38,
      "usage": "Used in neon signs, lasers, and as a refrigerant in cryogenics.",
      "category": "Noble Gas",
      "density": 0.90,
      "meltingPoint": -248.59,
      "boilingPoint": -246.08,
      "electronegativity": null,
      "discoveredBy": "Sir William Ramsay",
      "yearDiscovered": 1898
    },
    {
      "symbol": "Na",
      "name": "Sodium",
      "atomicNumber": 11,
      "atomicMass": 22.99,
      "atomicRadius": 190,
      "usage": "Used in food preservation, batteries, and in the production of chemicals.",
      "category": "Alkali Metal",
      "density": 0.97,
      "meltingPoint": 97.72,
      "boilingPoint": 882.94,
      "electronegativity": 0.93,
      "discoveredBy": "Humphry Davy",
      "yearDiscovered": 1807
    },
    {
      "symbol": "Mg",
      "name": "Magnesium",
      "atomicNumber": 12,
      "atomicMass": 24.31,
      "atomicRadius": 145,
      "usage": "Used in alloys, pyrotechnics, and in the production of electronics.",
      "category": "Alkaline Earth Metal",
      "density": 1.74,
      "meltingPoint": 650,
      "boilingPoint": 1090,
      "electronegativity": 1.31,
      "discoveredBy": "Joseph Black",
      "yearDiscovered": 1755
    },
    {
      "symbol": "Al",
      "name": "Aluminum",
      "atomicNumber": 13,
      "atomicMass": 26.98,
      "atomicRadius": 118,
      "usage": "Used in construction, packaging, and in the aerospace industry.",
      "category": "Post-transition Metal",
      "density": 2.70,
      "meltingPoint": 660.32,
      "boilingPoint": 2519,
      "electronegativity": 1.61,
      "discoveredBy": "Hans Christian Ørsted",
      "yearDiscovered": 1825
    },
    {
      "symbol": "Si",
      "name": "Silicon",
      "atomicNumber": 14,
      "atomicMass": 28.09,
      "atomicRadius": 111,
      "usage": "Used in semiconductors, glass, and in the production of solar cells.",
      "category": "Metalloid",
      "density": 2.33,
      "meltingPoint": 1414,
      "boilingPoint": 2900,
      "electronegativity": 1.90,
      "discoveredBy": "Jöns Jacob Berzelius",
      "yearDiscovered": 1823
    },
    {
      "symbol": "P",
      "name": "Phosphorus",
      "atomicNumber": 15,
      "atomicMass": 30.97,
      "atomicRadius": 98,
      "usage": "Used in fertilizers, matches, and in the production of detergents.",
      "category": "Non-metal",
      "density": 1.82,
      "meltingPoint": 44.15,
      "boilingPoint": 280.5,
      "electronegativity": 2.19,
      "discoveredBy": "Hennig Brand",
      "yearDiscovered": 1669
    },
    {
      "symbol": "S",
      "name": "Sulfur",
      "atomicNumber": 16,
      "atomicMass": 32.07,
      "atomicRadius": 88,
      "usage": "Used in the production of sulfuric acid, vulcanization of rubber, and in matches.",
      "category": "Non-metal",
      "density": 2.07,
      "meltingPoint": 115.21,
      "boilingPoint": 444.67,
      "electronegativity": 2.58,
      "discoveredBy": "Ancient China",
      "yearDiscovered": "Prehistoric"
    },
    {
      "symbol": "Cl",
      "name": "Chlorine",
      "atomicNumber": 17,
      "atomicMass": 35.45,
      "atomicRadius": 79,
      "usage": "Used in water purification, disinfectants, and in the production of PVC.",
      "category": "Halogen",
      "density": 3.21,
      "meltingPoint": -100.98,
      "boilingPoint": -34.04,
      "electronegativity": 3.16,
      "discoveredBy": "Carl Wilhelm Scheele",
      "yearDiscovered": 1774
    },
    {
      "symbol": "Ar",
      "name": "Argon",
      "atomicNumber": 18,
      "atomicMass": 39.95,
      "atomicRadius": 71,
      "usage": "Used in welding, as an inert gas in light bulbs, and in lasers.",
      "category": "Noble Gas",
      "density": 1.78,
      "meltingPoint": -189.36,
      "boilingPoint": -185.87,
      "electronegativity": null,
      "discoveredBy": "Lord Rayleigh and Sir William Ramsay",
      "yearDiscovered": 1894
    },
    {
      "symbol": "K",
      "name": "Potassium",
      "atomicNumber": 19,
      "atomicMass": 39.10,
      "atomicRadius": 243,
      "usage": "Used in fertilizers, explosives, and in the production of potassium hydroxide.",
      "category": "Alkali Metal",
      "density": 0.86,
      "meltingPoint": 63.38,
      "boilingPoint": 759.85,
      "electronegativity": 0.82,
      "discoveredBy": "Humphry Davy",
      "yearDiscovered": 1807
    },
    {
      "symbol": "Ca",
      "name": "Calcium",
      "atomicNumber": 20,
      "atomicMass": 40.08,
      "atomicRadius": 194,
      "usage": "Used in construction, as a dietary supplement, and in the production of steel.",
      "category": "Alkaline Earth Metal",
      "density": 1.55,
      "meltingPoint": 839.87,
      "boilingPoint": 1484,
      "electronegativity": 1.00,
      "discoveredBy": "Humphry Davy",
      "yearDiscovered": 1808
    },
    {
      "symbol": "Sc",
      "name": "Scandium",
      "atomicNumber": 21,
      "atomicMass": 44.96,
      "atomicRadius": 184,
      "usage": "Used in aerospace components and in some types of aluminum alloys.",
      "category": "Transition Metal",
      "density": 2.99,
      "meltingPoint": 1539,
      "boilingPoint": 2832,
      "electronegativity": 1.36,
      "discoveredBy": "Lars Fredrik Nilson",
      "yearDiscovered": 1879
    },
    {
      "symbol": "Ti",
      "name": "Titanium",
      "atomicNumber": 22,
      "atomicMass": 47.87,
      "atomicRadius": 176,
      "usage": "Used in aerospace applications, medical implants, and in the production of paint.",
      "category": "Transition Metal",
      "density": 4.51,
      "meltingPoint": 1941,
      "boilingPoint": 3560,
      "electronegativity": 1.54,
      "discoveredBy": "William Gregor",
      "yearDiscovered": 1791
    },
    {
      "symbol": "V",
      "name": "Vanadium",
      "atomicNumber": 23,
      "atomicMass": 50.94,
      "atomicRadius": 171,
      "usage": "Used in steel alloys, as a catalyst, and in the production of aerospace components.",
      "category": "Transition Metal",
      "density": 6.11,
      "meltingPoint": 2183,
      "boilingPoint": 3680,
      "electronegativity": 1.63,
      "discoveredBy": "Andrés Manuel del Río",
      "yearDiscovered": 1801
    },
    {
      "symbol": "Cr",
      "name": "Chromium",
      "atomicNumber": 24,
      "atomicMass": 51.99,
      "atomicRadius": 166,
      "usage": "Used in stainless steel production, pigments, and in the production of alloys.",
      "category": "Transition Metal",
      "density": 7.19,
      "meltingPoint": 2180,
      "boilingPoint": 2944,
      "electronegativity": 1.66,
      "discoveredBy": "Louis Nicolas Vauquelin",
      "yearDiscovered": 1797
    },
    {
      "symbol": "Mn",
      "name": "Manganese",
      "atomicNumber": 25,
      "atomicMass": 54.94,
      "atomicRadius": 161,
      "usage": "Used in steel production, batteries, and in the production of alloys.",
      "category": "Transition Metal",
      "density": 7.21,
      "meltingPoint": 1519,
      "boilingPoint": 2334,
      "electronegativity": 1.55,
      "discoveredBy": "Johan Gottlieb Gahn",
      "yearDiscovered": 1774
    },
    {
      "symbol": "Fe",
      "name": "Iron",
      "atomicNumber": 26,
      "atomicMass": 55.85,
      "atomicRadius": 156,
      "usage": "Used in construction, vehicles, and in the production of steel.",
      "category": "Transition Metal",
      "density": 7.87,
      "meltingPoint": 1811,
      "boilingPoint": 3134,
      "electronegativity": 1.83,
      "discoveredBy": "Ancient Egypt",
      "yearDiscovered": "Prehistoric"
    },
    {
      "symbol": "Ni",
      "name": "Nickel",
      "atomicNumber": 27,
      "atomicMass": 58.69,
      "atomicRadius": 149,
      "usage": "Used in stainless steel, batteries, and in the production of coins.",
      "category": "Transition Metal",
      "density": 8.91,
      "meltingPoint": 1728,
      "boilingPoint": 3186,
      "electronegativity": 1.91,
      "discoveredBy": "Axel Fredrik Cronstedt",
      "yearDiscovered": 1751
    },
    {
      "symbol": "Cu",
      "name": "Copper",
      "atomicNumber": 28,
      "atomicMass": 63.55,
      "atomicRadius": 145,
      "usage": "Used in electrical wiring, plumbing, and in the production of coins.",
      "category": "Transition Metal",
      "density": 8.96,
      "meltingPoint": 1357.77,
      "boilingPoint": 2835,
      "electronegativity": 1.90,
      "discoveredBy": "Ancient Middle East",
      "yearDiscovered": "Prehistoric"
    },
    {
      "symbol": "Zn",
      "name": "Zinc",
      "atomicNumber": 29,
      "atomicMass": 65.38,
      "atomicRadius": 142,
      "usage": "Used in galvanization, batteries, and in the production of alloys.",
      "category": "Transition Metal",
      "density": 7.14,
      "meltingPoint": 692.68,
      "boilingPoint": 1180,
      "electronegativity": 1.65,
      "discoveredBy": "India",
      "yearDiscovered": "Prehistoric"
    },
    {
      "symbol": "Ga",
      "name": "Gallium",
      "atomicNumber": 30,
      "atomicMass": 69.72,
      "atomicRadius": 136,
      "usage": "Used in semiconductors, LED lights, and in the production of solar cells.",
      "category": "Post-transition Metal",
      "density": 5.91,
      "meltingPoint": 302.91,
      "boilingPoint": 2477,
      "electronegativity": 1.81,
      "discoveredBy": "Lecoq de Boisbaudran",
      "yearDiscovered": 1875
    },
    {
      "symbol": "Ge",
      "name": "Germanium",
      "atomicNumber": 31,
      "atomicMass": 72.63,
      "atomicRadius": 125,
      "usage": "Used in transistors, infrared optics, and in solar cell applications.",
      "category": "Metalloid",
      "density": 5.32,
      "meltingPoint": 1211.40,
      "boilingPoint": 3093,
      "electronegativity": 2.01,
      "discoveredBy": "Clemens Winkler",
      "yearDiscovered": 1886
    },
    {
      "symbol": "As",
      "name": "Arsenic",
      "atomicNumber": 32,
      "atomicMass": 74.92,
      "atomicRadius": 114,
      "usage": "Used in semiconductors, wood preservatives, and in alloys.",
      "category": "Metalloid",
      "density": 5.73,
      "meltingPoint": 1090,
      "boilingPoint": 887,
      "electronegativity": 2.18,
      "discoveredBy": "Ancient Egypt",
      "yearDiscovered": "Prehistoric"
    },
    {
      "symbol": "Se",
      "name": "Selenium",
      "atomicNumber": 34,
      "atomicMass": 78.97,
      "atomicRadius": 103,
      "usage": "Used in photovoltaic cells, glass production, and in electronics.",
      "category": "Non-metal",
      "density": 4.81,
      "meltingPoint": 494,
      "boilingPoint": 958,
      "electronegativity": 2.55,
      "discoveredBy": "Jöns Jakob Berzelius",
      "yearDiscovered": 1817
    },
    {
      "symbol": "Br",
      "name": "Bromine",
      "atomicNumber": 35,
      "atomicMass": 79.90,
      "atomicRadius": 94,
      "usage": "Used in flame retardants, pharmaceuticals, and in water purification.",
      "category": "Halogen",
      "density": 3.12,
      "meltingPoint": -7.20,
      "boilingPoint": 58.78,
      "electronegativity": 2.96,
      "discoveredBy": "Antoine Balard",
      "yearDiscovered": 1826
    },
    {
      "symbol": "Kr",
      "name": "Krypton",
      "atomicNumber": 36,
      "atomicMass": 83.80,
      "atomicRadius": 88,
      "usage": "Used in lighting, lasers, and in high-speed photography.",
      "category": "Noble Gas",
      "density": 3.75,
      "meltingPoint": -157.36,
      "boilingPoint": -153.22,
      "electronegativity": null,
      "discoveredBy": "Sir William Ramsay and Morris Travers",
      "yearDiscovered": 1898
    },
    {
      "symbol": "Rb",
      "name": "Rubidium",
      "atomicNumber": 37,
      "atomicMass": 85.47,
      "atomicRadius": 265,
      "usage": "Used in atomic clocks, in the study of heart diseases, and in vacuum tubes.",
      "category": "Alkali Metal",
      "density": 1.53,
      "meltingPoint": 39.31,
      "boilingPoint": 688,
      "electronegativity": 0.82,
      "discoveredBy": "Robert Bunsen and Gustav Kirchhoff",
      "yearDiscovered": 1861
    },
    {
      "symbol": "Sr",
      "name": "Strontium",
      "atomicNumber": 38,
      "atomicMass": 87.62,
      "atomicRadius": 219,
      "usage": "Used in fireworks, in medical imaging, and in the production of flares.",
      "category": "Alkaline Earth Metal",
      "density": 2.64,
      "meltingPoint": 1042,
      "boilingPoint": 1655,
      "electronegativity": 0.95,
      "discoveredBy": "Adair Crawford and William Cruickshank",
      "yearDiscovered": 1787
    },
    {
      "symbol": "Y",
      "name": "Yttrium",
      "atomicNumber": 39,
      "atomicMass": 88.91,
      "atomicRadius": 212,
      "usage": "Used in LED lights, lasers, and in alloys for aircraft components.",
      "category": "Transition Metal",
      "density": 4.47,
      "meltingPoint": 1799,
      "boilingPoint": 3609,
      "electronegativity": 1.22,
      "discoveredBy": "Johan Gadolin",
      "yearDiscovered": 1794
    },
    {
      "symbol": "Zr",
      "name": "Zirconium",
      "atomicNumber": 40,
      "atomicMass": 91.22,
      "atomicRadius": 206,
      "usage": "Used in nuclear reactors, as a corrosion-resistant alloy, and in ceramics.",
      "category": "Transition Metal",
      "density": 6.51,
      "meltingPoint": 2128,
      "boilingPoint": 4682,
      "electronegativity": 1.33,
      "discoveredBy": "Martin Heinrich Klaproth",
      "yearDiscovered": 1789
    },
    {
      "symbol": "Nb",
      "name": "Niobium",
      "atomicNumber": 41,
      "atomicMass": 92.91,
      "atomicRadius": 198,
      "usage": "Used in superconductors, in steel alloys, and in the aerospace industry.",
      "category": "Transition Metal",
      "density": 8.57,
      "meltingPoint": 2750,
      "boilingPoint": 5017,
      "electronegativity": 1.6,
      "discoveredBy": "Charles Hatchett",
      "yearDiscovered": 1801
    },
    {
      "symbol": "Mo",
      "name": "Molybdenum",
      "atomicNumber": 42,
      "atomicMass": 95.94,
      "atomicRadius": 190,
      "usage": "Used in steel alloys, in electrical contacts, and in lubricants.",
      "category": "Transition Metal",
      "density": 10.22,
      "meltingPoint": 2896,
      "boilingPoint": 4912,
      "electronegativity": 2.16,
      "discoveredBy": "Carl Wilhelm Scheele",
      "yearDiscovered": 1778
    },
    {
      "symbol": "Tc",
      "name": "Technetium",
      "atomicNumber": 43,
      "atomicMass": 98.00,
      "atomicRadius": 183,
      "usage": "Primarily used in research and medical imaging (as a radioactive tracer).",
      "category": "Transition Metal",
      "density": 11.49,
      "meltingPoint": 2430,
      "boilingPoint": 4538,
      "electronegativity": 1.9,
      "discoveredBy": "Emilio Segrè and Carlo Perrier",
      "yearDiscovered": 1937
    },
    {
      "symbol": "Ru",
      "name": "Ruthenium",
      "atomicNumber": 44,
      "atomicMass": 101.07,
      "atomicRadius": 178,
      "usage": "Used in electrical contacts, in the production of jewelry, and in alloys.",
      "category": "Transition Metal",
      "density": 12.41,
      "meltingPoint": 2607,
      "boilingPoint": 4423,
      "electronegativity": 2.2,
      "discoveredBy": "Karl Ernst Claus",
      "yearDiscovered": 1844
    },
    {
      "symbol": "Rh",
      "name": "Rhodium",
      "atomicNumber": 45,
      "atomicMass": 102.91,
      "atomicRadius": 173,
      "usage": "Used in catalytic converters, in jewelry, and in electrical contacts.",
      "category": "Transition Metal",
      "density": 12.41,
      "meltingPoint": 2237,
      "boilingPoint": 3968,
      "electronegativity": 2.28,
      "discoveredBy": "William Hyde Wollaston",
      "yearDiscovered": 1803
    },
    {
      "symbol": "Pd",
      "name": "Palladium",
      "atomicNumber": 46,
      "atomicMass": 106.42,
      "atomicRadius": 169,
      "usage": "Used in catalytic converters, in electronics, and in jewelry.",
      "category": "Transition Metal",
      "density": 12.02,
      "meltingPoint": 1828.05,
      "boilingPoint": 3236,
      "electronegativity": 2.20,
      "discoveredBy": "William Hyde Wollaston",
      "yearDiscovered": 1803
    },
    {
      "symbol": "Ag",
      "name": "Silver",
      "atomicNumber": 47,
      "atomicMass": 107.87,
      "atomicRadius": 165,
      "usage": "Used in currency, in jewelry, and in electrical conductors.",
      "category": "Transition Metal",
      "density": 10.49,
      "meltingPoint": 1234.93,
      "boilingPoint": 2435,
      "electronegativity": 1.93,
      "discoveredBy": "Ancient Middle East",
      "yearDiscovered": "Prehistoric"
    },
    {
      "symbol": "Cd",
      "name": "Cadmium",
      "atomicNumber": 48,
      "atomicMass": 112.41,
      "atomicRadius": 161,
      "usage": "Used in batteries, pigments, and in the production of alloys.",
      "category": "Transition Metal",
      "density": 8.65,
      "meltingPoint": 594.22,
      "boilingPoint": 1038,
      "electronegativity": 1.69,
      "discoveredBy": "Karl Samuel Leberecht Hermann and Friedrich Stromeyer",
      "yearDiscovered": 1817
    },
    {
      "symbol": "In",
      "name": "Indium",
      "atomicNumber": 49,
      "atomicMass": 114.82,
      "atomicRadius": 156,
      "usage": "Used in semiconductors, in the production of flat-panel displays, and in alloys.",
      "category": "Post-transition Metal",
      "density": 7.31,
      "meltingPoint": 429.75,
      "boilingPoint": 2345,
      "electronegativity": 1.78,
      "discoveredBy": "Ferdinand Reich and Hieronymous Theodor Richter",
      "yearDiscovered": 1863
    },
    {
      "symbol": "Sn",
      "name": "Tin",
      "atomicNumber": 50,
      "atomicMass": 118.71,
      "atomicRadius": 145,
      "usage": "Used in packaging (tin cans), in soldering, and in the production of alloys.",
      "category": "Post-transition Metal",
      "density": 7.29,
      "meltingPoint": 505.08,
      "boilingPoint": 2875,
      "electronegativity": 1.96,
      "discoveredBy": "Ancient Middle East",
      "yearDiscovered": "Prehistoric"
    },
    {
      "symbol": "Sb",
      "name": "Antimony",
      "atomicNumber": 51,
      "atomicMass": 121.76,
      "atomicRadius": 133,
      "usage": "Used in flame retardants, in alloys, and in the production of semiconductors.",
      "category": "Metalloid",
      "density": 6.68,
      "meltingPoint": 903.78,
      "boilingPoint": 1860,
      "electronegativity": 2.05,
      "discoveredBy": "Ancient Egypt",
      "yearDiscovered": "Prehistoric"
    },
    {
      "symbol": "Te",
      "name": "Tellurium",
      "atomicNumber": 52,
      "atomicMass": 127.60,
      "atomicRadius": 123,
      "usage": "Used in solar cells, in photovoltaic panels, and in alloys.",
      "category": "Metalloid",
      "density": 6.24,
      "meltingPoint": 722.66,
      "boilingPoint": 1261,
      "electronegativity": 2.1,
      "discoveredBy": "Franz-Joseph Müller von Reichenstein",
      "yearDiscovered": 1782
    },
    {
      "symbol": "I",
      "name": "Iodine",
      "atomicNumber": 53,
      "atomicMass": 126.90,
      "atomicRadius": 115,
      "usage": "Used in antiseptics, in dyes, and in the production of iodized salt.",
      "category": "Halogen",
      "density": 4.93,
      "meltingPoint": 386.85,
      "boilingPoint": 457.4,
      "electronegativity": 2.66,
      "discoveredBy": "Bernard Courtois",
      "yearDiscovered": 1811
    },
    {
      "symbol": "Xe",
      "name": "Xenon",
      "atomicNumber": 54,
      "atomicMass": 131.29,
      "atomicRadius": 108,
      "usage": "Used in xenon headlights, in lasers, and in medical imaging.",
      "category": "Noble Gas",
      "density": 5.90,
      "meltingPoint": -111.75,
      "boilingPoint": -108.0,
      "electronegativity": null,
      "discoveredBy": "Sir William Ramsay and Morris Travers",
      "yearDiscovered": 1898
    },
    {
      "symbol": "Cs",
      "name": "Cesium",
      "atomicNumber": 55,
      "atomicMass": 132.91,
      "atomicRadius": 298,
      "usage": "Used in atomic clocks, in drilling fluids, and in photoelectric cells.",
      "category": "Alkali Metal",
      "density": 1.87,
      "meltingPoint": 301.59,
      "boilingPoint": 944,
      "electronegativity": 0.79,
      "discoveredBy": "Robert Bunsen and Gustav Kirchhoff",
      "yearDiscovered": 1860
    },
    {
      "symbol": "Ba",
      "name": "Barium",
      "atomicNumber": 56,
      "atomicMass": 137.33,
      "atomicRadius": 253,
      "usage": "Used in medical imaging, in drilling fluids, and in fireworks.",
      "category": "Alkaline Earth Metal",
      "density": 3.59,
      "meltingPoint": 1000,
      "boilingPoint": 2170,
      "electronegativity": 0.89,
      "discoveredBy": "Carl Wilhelm Scheele",
      "yearDiscovered": 1772
    },
    {
      "symbol": "La",
      "name": "Lanthanum",
      "atomicNumber": 57,
      "atomicMass": 138.91,
      "atomicRadius": 0,
      "usage": "Used in carbon arc lamps, in hydrogen storage, and in optical lenses.",
      "category": "Lanthanide",
      "density": 6.15,
      "meltingPoint": 1193,
      "boilingPoint": 3737,
      "electronegativity": 1.10,
      "discoveredBy": "Carl Gustaf Mosander",
      "yearDiscovered": 1839
    },
    {
      "symbol": "Ce",
      "name": "Cerium",
      "atomicNumber": 58,
      "atomicMass": 140.12,
      "atomicRadius": 0,
      "usage": "Used in catalytic converters, in glass polishing, and in alloys.",
      "category": "Lanthanide",
      "density": 6.77,
      "meltingPoint": 1068,
      "boilingPoint": 3716,
      "electronegativity": 1.12,
      "discoveredBy": "Martin Heinrich Klaproth",
      "yearDiscovered": 1803
    },
    {
      "symbol": "Pr",
      "name": "Praseodymium",
      "atomicNumber": 59,
      "atomicMass": 140.91,
      "atomicRadius": 0,
      "usage": "Used in magnets, in carbon arc lamps, and in alloys.",
      "category": "Lanthanide",
      "density": 6.77,
      "meltingPoint": 1208,
      "boilingPoint": 3793,
      "electronegativity": 1.13,
      "discoveredBy": "Carl Auer von Welsbach",
      "yearDiscovered": 1885
    },
    {
      "symbol": "Nd",
      "name": "Neodymium",
      "atomicNumber": 60,
      "atomicMass": 144.24,
      "atomicRadius": 0,
      "usage": "Used in magnets, lasers, and in the production of glass.",
      "category": "Lanthanide",
      "density": 7.01,
      "meltingPoint": 1297,
      "boilingPoint": 3347,
      "electronegativity": 1.14,
      "discoveredBy": "Carl Auer von Welsbach",
      "yearDiscovered": 1885
    },
    {
      "symbol": "Pm",
      "name": "Promethium",
      "atomicNumber": 61,
      "atomicMass": 145.00,
      "atomicRadius": 0,
      "usage": "Primarily used in research (as a radioactive tracer) and in luminous paint.",
      "category": "Lanthanide",
      "density": 7.26,
      "meltingPoint": 1315,
      "boilingPoint": 3273,
      "electronegativity": null,
      "discoveredBy": "Jacob A. Marinsky, Lawrence E. Glendenin, and Charles D. Coryell",
      "yearDiscovered": 1945
    },
    {
      "symbol": "Sm",
      "name": "Samarium",
      "atomicNumber": 62,
      "atomicMass": 150.36,
      "atomicRadius": 0,
      "usage": "Used in magnets, in nuclear reactors, and in the production of alloys.",
      "category": "Lanthanide",
      "density": 7.52,
      "meltingPoint": 1345,
      "boilingPoint": 2067,
      "electronegativity": 1.17,
      "discoveredBy": "Lecoq de Boisbaudran",
      "yearDiscovered": 1879
    },
    {
      "symbol": "Eu",
      "name": "Europium",
      "atomicNumber": 63,
      "atomicMass": 151.98,
      "atomicRadius": 0,
      "usage": "Used in fluorescent lamps, in TV screens, and in the production of lasers.",
      "category": "Lanthanide",
      "density": 5.24,
      "meltingPoint": 1099,
      "boilingPoint": 1802,
      "electronegativity": 1.2,
      "discoveredBy": "Eugène-Anatole Demarçay",
      "yearDiscovered": 1901
    },
    {
      "symbol": "Gd",
      "name": "Gadolinium",
      "atomicNumber": 64,
      "atomicMass": 157.25,
      "atomicRadius": 0,
      "usage": "Used in MRI contrast agents, in nuclear reactors, and in the production of magnets.",
      "category": "Lanthanide",
      "density": 7.90,
      "meltingPoint": 1585,
      "boilingPoint": 3546,
      "electronegativity": 1.20,
      "discoveredBy": "Jean Charles Galissard de Marignac",
      "yearDiscovered": 1880
    },
    {
      "symbol": "Tb",
      "name": "Terbium",
      "atomicNumber": 65,
      "atomicMass": 158.93,
      "atomicRadius": 0,
      "usage": "Used in flat-panel displays, in solid-state devices, and in lasers.",
      "category": "Lanthanide",
      "density": 8.23,
      "meltingPoint": 1629,
      "boilingPoint": 3503,
      "electronegativity": 1.20,
      "discoveredBy": "Carl Gustaf Mosander",
      "yearDiscovered": 1843
    },
    {
      "symbol": "Dy",
      "name": "Dysprosium",
      "atomicNumber": 66,
      "atomicMass": 162.50,
      "atomicRadius": 0,
      "usage": "Used in magnets, lasers, and in the production of alloys.",
      "category": "Lanthanide",
      "density": 8.55,
      "meltingPoint": 1680,
      "boilingPoint": 2840,
      "electronegativity": 1.22,
      "discoveredBy": "Paul Émile Lecoq de Boisbaudran",
      "yearDiscovered": 1886
    },
    {
      "symbol": "Ho",
      "name": "Holmium",
      "atomicNumber": 67,
      "atomicMass": 164.93,
      "atomicRadius": 0,
      "usage": "Used in magnets, in lasers, and in nuclear reactors.",
      "category": "Lanthanide",
      "density": 8.80,
      "meltingPoint": 1734,
      "boilingPoint": 2993,
      "electronegativity": 1.23,
      "discoveredBy": "Marc Delafontaine and Jacques-Louis Soret",
      "yearDiscovered": 1878
    },
    {
      "symbol": "Er",
      "name": "Erbium",
      "atomicNumber": 68,
      "atomicMass": 167.26,
      "atomicRadius": 0,
      "usage": "Used in optical fiber amplifiers, in lasers, and in nuclear reactors.",
      "category": "Lanthanide",
      "density": 9.07,
      "meltingPoint": 1802,
      "boilingPoint": 3141,
      "electronegativity": 1.24,
      "discoveredBy": "Carl Gustaf Mosander",
      "yearDiscovered": 1842
    },
    {
      "symbol": "Tm",
      "name": "Thulium",
      "atomicNumber": 69,
      "atomicMass": 168.93,
      "atomicRadius": 0,
      "usage": "Used in portable X-ray devices, in lasers, and in research.",
      "category": "Lanthanide",
      "density": 9.32,
      "meltingPoint": 1818,
      "boilingPoint": 2223,
      "electronegativity": 1.25,
      "discoveredBy": "Per Teodor Cleve",
      "yearDiscovered": 1879
    },
    {
      "symbol": "Yb",
      "name": "Ytterbium",
      "atomicNumber": 70,
      "atomicMass": 173.04,
      "atomicRadius": 0,
      "usage": "Used in chemical and materials research, in lasers, and in medical imaging.",
      "category": "Lanthanide",
      "density": 6.97,
      "meltingPoint": 1097,
      "boilingPoint": 1469,
      "electronegativity": 1.1,
      "discoveredBy": "Jean Charles Galissard de Marignac",
      "yearDiscovered": 1878
    },
    {
      "symbol": "Lu",
      "name": "Lutetium",
      "atomicNumber": 71,
      "atomicMass": 174.97,
      "atomicRadius": 0,
      "usage": "Used in petroleum cracking, in LED light bulbs, and in research.",
      "category": "Lanthanide",
      "density": 9.84,
      "meltingPoint": 1925,
      "boilingPoint": 3675,
      "electronegativity": 1.27,
      "discoveredBy": "Carl Auer von Welsbach",
      "yearDiscovered": 1907
    },
    {
      "symbol": "Hf",
      "name": "Hafnium",
      "atomicNumber": 72,
      "atomicMass": 178.49,
      "atomicRadius": 159,
      "usage": "Used in nuclear reactors, in superalloys, and in semiconductors.",
      "category": "Transition Metal",
      "density": 13.31,
      "meltingPoint": 2506,
      "boilingPoint": 4876,
      "electronegativity": 1.3,
      "discoveredBy": "Dirk Coster and Georg von Hevesy",
      "yearDiscovered": 1923
    },
    {
      "symbol": "Ta",
      "name": "Tantalum",
      "atomicNumber": 73,
      "atomicMass": 180.95,
      "atomicRadius": 146,
      "usage": "Used in capacitors, in aircraft components, and in medical implants.",
      "category": "Transition Metal",
      "density": 16.65,
      "meltingPoint": 3290,
      "boilingPoint": 5731,
      "electronegativity": 1.5,
      "discoveredBy": "Anders Gustaf Ekeberg",
      "yearDiscovered": 1802
    },
    {
      "symbol": "W",
      "name": "Tungsten",
      "atomicNumber": 74,
      "atomicMass": 183.84,
      "atomicRadius": 137,
      "usage": "Used in light bulbs, in electrical wiring, and in the aerospace industry.",
      "category": "Transition Metal",
      "density": 19.25,
      "meltingPoint": 3695,
      "boilingPoint": 5828,
      "electronegativity": 2.36,
      "discoveredBy": "Carl Wilhelm Scheele",
      "yearDiscovered": 1781
    },
    {
      "symbol": "Re",
      "name": "Rhenium",
      "atomicNumber": 75,
      "atomicMass": 186.21,
      "atomicRadius": 131,
      "usage": "Used in superalloys, in electrical contacts, and in thermocouples.",
      "category": "Transition Metal",
      "density": 21.02,
      "meltingPoint": 3459,
      "boilingPoint": 5869,
      "electronegativity": 1.9,
      "discoveredBy": "Masataka Ogawa",
      "yearDiscovered": 1908
    },
    {
      "symbol": "Os",
      "name": "Osmium",
      "atomicNumber": 76,
      "atomicMass": 190.23,
      "atomicRadius": 128,
      "usage": "Used in fountain pen tips, in electrical contacts, and in alloys.",
      "category": "Transition Metal",
      "density": 22.59,
      "meltingPoint": 3306,
      "boilingPoint": 5285,
      "electronegativity": 2.2,
      "discoveredBy": "Smithson Tennant",
      "yearDiscovered": 1803
    },
    {
      "symbol": "Ir",
      "name": "Iridium",
      "atomicNumber": 77,
      "atomicMass": 192.22,
      "atomicRadius": 127,
      "usage": "Used in spark plugs, in crucibles, and in the aerospace industry.",
      "category": "Transition Metal",
      "density": 22.56,
      "meltingPoint": 2719,
      "boilingPoint": 4701,
      "electronegativity": 2.2,
      "discoveredBy": "Smithson Tennant",
      "yearDiscovered": 1803
    }
]
  